============================== echo of input deck ==============================
start

title "ethanol"

echo
geometry ethanol
   O       1.4277    -0.5650    -0.3289
   C       0.4703     0.4443    -0.1587
   C      -0.9137    -0.1644     0.0308
   H       1.6014    -0.9462     0.5713
   H       0.4633     1.0865    -1.0645
   H       0.7274     1.0839     0.7160
   H      -0.9322    -0.7928     0.9464
   H      -1.6672     0.6445     0.1353
   H      -1.1770    -0.7909    -0.8477
end

basis spherical
* library 6-311G
end

dft
direct
xc pbe0
noprint "final vectors analysis" multipole
end

set geometry ethanol
task dft optimize
property
  shielding
end
task dft property
================================================================================

         Total DFT energy =     -154.841441468609
@ Step       Energy      Delta E   Gmax     Grms     Xrms     Xmax   Walltime
@ ---- ---------------- -------- -------- -------- -------- -------- --------
@    0    -154.84144147  0.0D+00  0.03450  0.00847  0.00000  0.00000     10.0
         Total DFT energy =     -154.845206820301
         Total DFT energy =     -154.845264423065
@    1    -154.84526442 -3.8D-03  0.00334  0.00125  0.05197  0.17724     26.3
         Total DFT energy =     -154.845500576771
         Total DFT energy =     -154.845511790725
@    2    -154.84551179 -2.5D-04  0.00171  0.00065  0.01219  0.02793     41.6
         Total DFT energy =     -154.845564401413
         Total DFT energy =     -154.845578938672
@    3    -154.84557894 -6.7D-05  0.00115  0.00034  0.00753  0.01724     56.2
         Total DFT energy =     -154.845604674262
         Total DFT energy =     -154.845628607588
@    4    -154.84562861 -5.0D-05  0.00303  0.00069  0.01049  0.03428     72.1
         Total DFT energy =     -154.845685043751
         Total DFT energy =     -154.845730762984
@    5    -154.84573076 -1.0D-04  0.00228  0.00065  0.02642  0.08485     87.0
         Total DFT energy =     -154.845793487766
         Total DFT energy =     -154.845836738861
@    6    -154.84583674 -1.1D-04  0.00110  0.00039  0.02639  0.07134    101.8
         Total DFT energy =     -154.845856996585
         Total DFT energy =     -154.845861146435
@    7    -154.84586115 -2.4D-05  0.00036  0.00012  0.00600  0.01544    115.9
         Total DFT energy =     -154.845863596164
         Total DFT energy =   -154.845863596164
@    8    -154.84586360 -2.4D-06  0.00010  0.00004  0.00140  0.00321    122.8
         Total DFT energy =     -154.845864076794
         Total DFT energy =   -154.845864076794
@    9    -154.84586408 -4.8D-07  0.00002  0.00001  0.00063  0.00136    128.2
@    9    -154.84586408 -4.8D-07  0.00002  0.00001  0.00063  0.00136    128.2

 Output coordinates in angstroms (scale by  1.889725989 to convert to a.u.)

  No.       Tag          Charge          X              Y              Z
 ---- ---------------- ---------- -------------- -------------- --------------
    1 O                    8.0000    -0.20449516    -1.26531672    -0.05936121
    2 C                    6.0000     0.59479790    -0.06116784     0.02952118
    3 C                    6.0000    -0.25630027     1.19270941    -0.01224878
    4 H                    1.0000    -0.80893559    -1.31570254     0.69740612
    5 H                    1.0000     1.26026325    -0.10679418    -0.83063085
    6 H                    1.0000     1.21446186    -0.07629752     0.93414002
    7 H                    1.0000    -0.91308885     1.25267687     0.86059027
    8 H                    1.0000     0.36423746     2.09228194    -0.02111911
    9 H                    1.0000    -0.88110472     1.19459159    -0.90625108

         Total DFT energy =     -154.845862479703
      Atom:    1  O
           isotropic =     275.2131
      Atom:    2  C
           isotropic =     132.5255
      Atom:    3  C
           isotropic =     174.7759
      Atom:    4  H
           isotropic =      32.8701
      Atom:    5  H
           isotropic =      28.9842
      Atom:    6  H
           isotropic =      28.8955
      Atom:    7  H
           isotropic =      31.8083
      Atom:    8  H
           isotropic =      31.5748
      Atom:    9  H
           isotropic =      31.2364
 Total times  cpu:      363.3s     wall:      175.7s
