============================== echo of input deck ==============================
start

title "TMS NMR PBE0/def2-tzvpd"

echo
geometry tms
Si   0.00000000     0.00000000     0.00000000
C    1.08400099     1.08400099     1.08400099
H    1.72826560     1.72826560     0.47927400
H    1.72826560     0.47927400     1.72826560
H    0.47927400     1.72826560     1.72826560
C   -1.08400099    -1.08400099     1.08400099
H   -1.72826560    -0.47927400     1.72826560
H   -1.72826560    -1.72826560     0.47927400
H   -0.47927400    -1.72826560     1.72826560
C    1.08400099    -1.08400099    -1.08400099
H    0.47927400    -1.72826560    -1.72826560
H    1.72826560    -0.47927400    -1.72826560
H    1.72826560    -1.72826560    -0.47927400
C   -1.08400099     1.08400099    -1.08400099
H   -1.72826560     0.47927400    -1.72826560
H   -1.72826560     1.72826560    -0.47927400
H   -0.47927400     1.72826560    -1.72826560
end

basis spherical
* library 6-311G
end

dft
direct
xc pbe0
noprint "final vectors analysis" multipole
end

set geometry tms
task dft optimize
property
  dipole
  mulliken
  shielding
end
task dft property
================================================================================

         Total DFT energy =     -448.832671093346
@ Step       Energy      Delta E   Gmax     Grms     Xrms     Xmax   Walltime
@ ---- ---------------- -------- -------- -------- -------- -------- --------
@    0    -448.83267109  0.0D+00  0.00864  0.00193  0.00000  0.00000      9.1
         Total DFT energy =     -448.833232256115
         Total DFT energy =     -448.833415663420
@    1    -448.83341566 -7.4D-04  0.00068  0.00033  0.02291  0.02696     20.2
         Total DFT energy =     -448.833455877744
         Total DFT energy =     -448.833458779938
@    2    -448.83345878 -4.3D-05  0.00028  0.00012  0.00304  0.00533     29.9
         Total DFT energy =     -448.833461689717
         Total DFT energy =   -448.833461689717
@    3    -448.83346169 -2.9D-06  0.00006  0.00002  0.00091  0.00114     35.6
@    3    -448.83346169 -2.9D-06  0.00006  0.00002  0.00091  0.00114     35.6

 Output coordinates in angstroms (scale by  1.889725989 to convert to a.u.)

  No.       Tag          Charge          X              Y              Z
 ---- ---------------- ---------- -------------- -------------- --------------
    1 Si                  14.0000     0.00000000     0.00000000     0.00000000
    2 C                    6.0000     1.09805768     1.09805768     1.09805768
    3 H                    1.0000     1.73970132     1.73970132     0.49021624
    4 H                    1.0000     1.73970132     0.49021624     1.73970132
    5 H                    1.0000     0.49021624     1.73970132     1.73970132
    6 C                    6.0000    -1.09805768    -1.09805768     1.09805768
    7 H                    1.0000    -1.73970132    -0.49021624     1.73970132
    8 H                    1.0000    -1.73970132    -1.73970132     0.49021624
    9 H                    1.0000    -0.49021624    -1.73970132     1.73970132
   10 C                    6.0000     1.09805768    -1.09805768    -1.09805768
   11 H                    1.0000     0.49021624    -1.73970132    -1.73970132
   12 H                    1.0000     1.73970132    -0.49021624    -1.73970132
   13 H                    1.0000     1.73970132    -1.73970132    -0.49021624
   14 C                    6.0000    -1.09805768     1.09805768    -1.09805768
   15 H                    1.0000    -1.73970132     0.49021624    -1.73970132
   16 H                    1.0000    -1.73970132     1.73970132    -0.49021624
   17 H                    1.0000    -0.49021624     1.73970132    -1.73970132

         Total DFT energy =     -448.833445063799
      Atom:    1  Si
           isotropic =     383.5469
      Atom:    2  C
           isotropic =     195.4494
      Atom:    3  H
           isotropic =      32.7715
      Atom:    4  H
           isotropic =      32.7715
      Atom:    5  H
           isotropic =      32.7715
      Atom:    6  C
           isotropic =     195.4494
      Atom:    7  H
           isotropic =      32.7715
      Atom:    8  H
           isotropic =      32.7715
      Atom:    9  H
           isotropic =      32.7715
      Atom:   10  C
           isotropic =     195.4494
      Atom:   11  H
           isotropic =      32.7715
      Atom:   12  H
           isotropic =      32.7715
      Atom:   13  H
           isotropic =      32.7715
      Atom:   14  C
           isotropic =     195.4494
      Atom:   15  H
           isotropic =      32.7715
      Atom:   16  H
           isotropic =      32.7715
      Atom:   17  H
           isotropic =      32.7715
 Total times  cpu:      599.7s     wall:      337.9s
